s 2.888000000 _1_ MAC  --- 0 SYNC 9 [0.13 1 1] [energy 1000.000000 ei 0.000 es 0.000 et 0.000 er 0.000] 
N -t 2.888001 -n 0 -e 999.004846
N -t 2.888001 -n 2 -e 999.004845
N -t 2.888001 -n 4 -e 999.004845
N -t 2.888001 -n 3 -e 999.004845
s 3.125666667 _2_ MAC  --- 0 SYNC 9 [0.13 2 2] [energy 999.004845 ei 0.994 es 0.000 et 0.000 er 0.001] 
N -t 3.125667 -n 0 -e 998.922969
N -t 3.125668 -n 1 -e 998.922915
N -t 3.125668 -n 3 -e 998.922969
N -t 3.125668 -n 4 -e 998.922968
s 3.377334000 _0_ MAC  --- 0 SYNC 9 [0.12 0 1] [energy 998.922969 ei 1.075 es 0.000 et 0.000 er 0.002] 
N -t 3.377335 -n 1 -e 998.836219
N -t 3.377335 -n 2 -e 998.836219
N -t 3.377335 -n 4 -e 998.836273
N -t 3.377335 -n 3 -e 998.836273
s 3.607000667 _0_ MAC  --- 0 SYNC 9 [0.13 0 1] [energy 998.836220 ei 1.160 es 0.000 et 0.001 er 0.002] 
N -t 3.607001 -n 1 -e 998.757096
N -t 3.607001 -n 2 -e 998.757096
N -t 3.607001 -n 4 -e 998.757150
N -t 3.607001 -n 3 -e 998.757150
s 3.852668000 _1_ MAC  --- 0 SYNC 9 [0.12 1 0] [energy 998.757096 ei 1.238 es 0.000 et 0.001 er 0.003] 
N -t 3.852669 -n 0 -e 998.672412
N -t 3.852669 -n 2 -e 998.672465
N -t 3.852669 -n 4 -e 998.672519
N -t 3.852669 -n 3 -e 998.672519
s 4.085334667 _3_ MAC  --- 0 SYNC 9 [0.13 3 0] [energy 998.672519 ei 1.322 es 0.000 et 0.000 er 0.006] 
N -t 4.085335 -n 0 -e 998.592256
N -t 4.085336 -n 4 -e 998.592363
N -t 4.085336 -n 2 -e 998.592309
N -t 4.085336 -n 1 -e 998.592256
s 4.336001333 _2_ MAC  --- 0 SYNC 9 [0.12 2 0] [energy 998.592309 ei 1.401 es 0.000 et 0.001 er 0.006] 
N -t 4.336002 -n 0 -e 998.505905
N -t 4.336002 -n 1 -e 998.505905
N -t 4.336002 -n 3 -e 998.505958
N -t 4.336003 -n 4 -e 998.506011
s 4.572668000 _4_ MAC  --- 0 SYNC 9 [0.12 4 0] [energy 998.506011 ei 1.486 es 0.000 et 0.000 er 0.008] 
N -t 4.572669 -n 0 -e 998.424372
N -t 4.572669 -n 1 -e 998.424372
N -t 4.572669 -n 3 -e 998.424425
N -t 4.572669 -n 2 -e 998.424372
s 5.000000000 _1_ AGT  --- 0 cbr 512 [0.00 0 0] [energy 998.424372 ei 1.567 es 0.000 et 0.002 er 0.007] ------- [1:0 3:0 32 0] [0] 0 0
r 5.000000000 _1_ RTR  --- 0 cbr 512 [0.00 0 0] [energy 998.424372 ei 1.567 es 0.000 et 0.002 er 0.007] ------- [1:0 3:0 32 0] [0] 0 0
s 5.000000000 _2_ AGT  --- 1 cbr 512 [0.00 0 0] [energy 998.424372 ei 1.567 es 0.000 et 0.002 er 0.007] ------- [2:0 4:0 32 0] [0] 0 0
r 5.000000000 _2_ RTR  --- 1 cbr 512 [0.00 0 0] [energy 998.424372 ei 1.567 es 0.000 et 0.002 er 0.007] ------- [2:0 4:0 32 0] [0] 0 0
s 5.000000000 _1_ RTR  --- 0 AODV 48 [0.00 0 0] [energy 998.424372 ei 1.567 es 0.000 et 0.002 er 0.007] ------- [1:255 -1:255 30 0] [0x2 1 1 [3 0] [1 4]] (REQUEST)
s 5.000000000 _2_ RTR  --- 0 AODV 48 [0.00 0 0] [energy 998.424372 ei 1.567 es 0.000 et 0.002 er 0.007] ------- [2:255 -1:255 30 0] [0x2 1 1 [4 0] [2 4]] (REQUEST)
s 5.050000000 _1_ AGT  --- 2 cbr 512 [0.00 0 0] [energy 998.424372 ei 1.567 es 0.000 et 0.002 er 0.007] ------- [1:0 3:0 32 0] [1] 0 0
r 5.050000000 _1_ RTR  --- 2 cbr 512 [0.00 0 0] [energy 998.424372 ei 1.567 es 0.000 et 0.002 er 0.007] ------- [1:0 3:0 32 0] [1] 0 0
s 5.100000000 _1_ AGT  --- 3 cbr 512 [0.00 0 0] [energy 998.424372 ei 1.567 es 0.000 et 0.002 er 0.007] ------- [1:0 3:0 32 0] [2] 0 0
r 5.100000000 _1_ RTR  --- 3 cbr 512 [0.00 0 0] [energy 998.424372 ei 1.567 es 0.000 et 0.002 er 0.007] ------- [1:0 3:0 32 0] [2] 0 0
s 5.138201333 _1_ MAC  --- 0 AODV 48 [0.00 -1 1] [energy 998.424372 ei 1.567 es 0.000 et 0.002 er 0.007] ------- [1:255 -1:255 30 0] [0x2 1 1 [3 0] [1 4]] (REQUEST)
N -t 5.138202 -n 0 -e 998.214915
N -t 5.138202 -n 2 -e 998.214915
N -t 5.138202 -n 4 -e 998.214969
N -t 5.138203 -n 3 -e 998.214969
s 5.150000000 _1_ AGT  --- 4 cbr 512 [0.00 0 0] [energy 998.214150 ei 1.760 es 0.000 et 0.019 er 0.007] ------- [1:0 3:0 32 0] [3] 0 0
r 5.150000000 _1_ RTR  --- 4 cbr 512 [0.00 0 0] [energy 998.214150 ei 1.760 es 0.000 et 0.019 er 0.007] ------- [1:0 3:0 32 0] [3] 0 0
r 5.181202000 _0_ MAC  --- 0 AODV 48 [0.00 -1 1] [energy 998.214915 ei 1.760 es 0.000 et 0.002 er 0.022] ------- [1:255 -1:255 30 0] [0x2 1 1 [3 0] [1 4]] (REQUEST)
r 5.181227000 _0_ RTR  --- 0 AODV 48 [0.00 -1 1] [energy 998.214915 ei 1.760 es 0.000 et 0.002 er 0.022] ------- [1:255 -1:255 30 0] [0x2 1 1 [3 0] [1 4]] (REQUEST)
s 5.183398595 _0_ RTR  --- 0 AODV 48 [0.00 -1 1] [energy 998.214915 ei 1.760 es 0.000 et 0.002 er 0.022] ------- [0:255 -1:255 29 0] [0x2 2 1 [3 0] [1 4]] (REQUEST)
s 5.200000000 _1_ AGT  --- 5 cbr 512 [0.00 0 0] [energy 998.214150 ei 1.760 es 0.000 et 0.019 er 0.007] ------- [1:0 3:0 32 0] [4] 0 0
r 5.200000000 _1_ RTR  --- 5 cbr 512 [0.00 0 0] [energy 998.214150 ei 1.760 es 0.000 et 0.019 er 0.007] ------- [1:0 3:0 32 0] [4] 0 0
s 5.250000000 _1_ AGT  --- 6 cbr 512 [0.00 0 0] [energy 998.214150 ei 1.760 es 0.000 et 0.019 er 0.007] ------- [1:0 3:0 32 0] [5] 0 0
r 5.250000000 _1_ RTR  --- 6 cbr 512 [0.00 0 0] [energy 998.214150 ei 1.760 es 0.000 et 0.019 er 0.007] ------- [1:0 3:0 32 0] [5] 0 0
s 5.300000000 _1_ AGT  --- 7 cbr 512 [0.00 0 0] [energy 998.214150 ei 1.760 es 0.000 et 0.019 er 0.007] ------- [1:0 3:0 32 0] [6] 0 0
r 5.300000000 _1_ RTR  --- 7 cbr 512 [0.00 0 0] [energy 998.214150 ei 1.760 es 0.000 et 0.019 er 0.007] ------- [1:0 3:0 32 0] [6] 0 0
s 5.344868000 _2_ MAC  --- 0 AODV 48 [0.00 -1 2] [energy 998.214915 ei 1.760 es 0.000 et 0.002 er 0.022] ------- [2:255 -1:255 30 0] [0x2 1 1 [4 0] [2 4]] (REQUEST)
N -t 5.344869 -n 0 -e 998.142749
N -t 5.344869 -n 1 -e 998.141983
N -t 5.344869 -n 3 -e 998.142802
N -t 5.344869 -n 4 -e 998.142802
s 5.350000000 _1_ AGT  --- 8 cbr 512 [0.00 0 0] [energy 998.141983 ei 1.817 es 0.000 et 0.019 er 0.022] ------- [1:0 3:0 32 0] [7] 0 0
r 5.350000000 _1_ RTR  --- 8 cbr 512 [0.00 0 0] [energy 998.141983 ei 1.817 es 0.000 et 0.019 er 0.022] ------- [1:0 3:0 32 0] [7] 0 0
r 5.387868667 _0_ MAC  --- 0 AODV 48 [0.00 -1 2] [energy 998.142749 ei 1.817 es 0.000 et 0.002 er 0.038] ------- [2:255 -1:255 30 0] [0x2 1 1 [4 0] [2 4]] (REQUEST)
r 5.387893667 _0_ RTR  --- 0 AODV 48 [0.00 -1 2] [energy 998.142749 ei 1.817 es 0.000 et 0.002 er 0.038] ------- [2:255 -1:255 30 0] [0x2 1 1 [4 0] [2 4]] (REQUEST)
s 5.394667156 _0_ RTR  --- 0 AODV 48 [0.00 -1 2] [energy 998.142749 ei 1.817 es 0.000 et 0.002 er 0.038] ------- [0:255 -1:255 29 0] [0x2 2 1 [4 0] [2 4]] (REQUEST)
s 5.400000000 _1_ AGT  --- 9 cbr 512 [0.00 0 0] [energy 998.141983 ei 1.817 es 0.000 et 0.019 er 0.022] ------- [1:0 3:0 32 0] [8] 0 0
r 5.400000000 _1_ RTR  --- 9 cbr 512 [0.00 0 0] [energy 998.141983 ei 1.817 es 0.000 et 0.019 er 0.022] ------- [1:0 3:0 32 0] [8] 0 0
s 5.450000000 _1_ AGT  --- 10 cbr 512 [0.00 0 0] [energy 998.141983 ei 1.817 es 0.000 et 0.019 er 0.022] ------- [1:0 3:0 32 0] [9] 0 0
r 5.450000000 _1_ RTR  --- 10 cbr 512 [0.00 0 0] [energy 998.141983 ei 1.817 es 0.000 et 0.019 er 0.022] ------- [1:0 3:0 32 0] [9] 0 0
s 5.500000000 _1_ AGT  --- 11 cbr 512 [0.00 0 0] [energy 998.141983 ei 1.817 es 0.000 et 0.019 er 0.022] ------- [1:0 3:0 32 0] [10] 0 0
r 5.500000000 _1_ RTR  --- 11 cbr 512 [0.00 0 0] [energy 998.141983 ei 1.817 es 0.000 et 0.019 er 0.022] ------- [1:0 3:0 32 0] [10] 0 0
s 5.550000000 _1_ AGT  --- 12 cbr 512 [0.00 0 0] [energy 998.141983 ei 1.817 es 0.000 et 0.019 er 0.022] ------- [1:0 3:0 32 0] [11] 0 0
r 5.550000000 _1_ RTR  --- 12 cbr 512 [0.00 0 0] [energy 998.141983 ei 1.817 es 0.000 et 0.019 er 0.022] ------- [1:0 3:0 32 0] [11] 0 0
s 5.600000000 _1_ AGT  --- 13 cbr 512 [0.00 0 0] [energy 998.141983 ei 1.817 es 0.000 et 0.019 er 0.022] ------- [1:0 3:0 32 0] [12] 0 0
r 5.600000000 _1_ RTR  --- 13 cbr 512 [0.00 0 0] [energy 998.141983 ei 1.817 es 0.000 et 0.019 er 0.022] ------- [1:0 3:0 32 0] [12] 0 0
s 5.612535333 _0_ MAC  --- 0 AODV 48 [0.00 -1 0] [energy 998.142749 ei 1.817 es 0.000 et 0.002 er 0.038] ------- [0:255 -1:255 29 0] [0x2 2 1 [3 0] [1 4]] (REQUEST)
N -t 5.612536 -n 1 -e 998.048820
N -t 5.612536 -n 2 -e 998.048820
N -t 5.612536 -n 4 -e 998.049639
N -t 5.612536 -n 3 -e 998.049639
s 5.650000000 _1_ AGT  --- 14 cbr 512 [0.00 0 0] [energy 998.048820 ei 1.894 es 0.000 et 0.019 er 0.038] ------- [1:0 3:0 32 0] [13] 0 0
r 5.650000000 _1_ RTR  --- 14 cbr 512 [0.00 0 0] [energy 998.048820 ei 1.894 es 0.000 et 0.019 er 0.038] ------- [1:0 3:0 32 0] [13] 0 0
r 5.655536000 _1_ MAC  --- 0 AODV 48 [0.00 -1 0] [energy 998.048820 ei 1.894 es 0.000 et 0.019 er 0.038] ------- [0:255 -1:255 29 0] [0x2 2 1 [3 0] [1 4]] (REQUEST)
r 5.655536000 _2_ MAC  --- 0 AODV 48 [0.00 -1 0] [energy 998.048820 ei 1.894 es 0.000 et 0.019 er 0.038] ------- [0:255 -1:255 29 0] [0x2 2 1 [3 0] [1 4]] (REQUEST)
r 5.655536000 _4_ MAC  --- 0 AODV 48 [0.00 -1 0] [energy 998.049639 ei 1.894 es 0.000 et 0.001 er 0.055] ------- [0:255 -1:255 29 0] [0x2 2 1 [3 0] [1 4]] (REQUEST)
r 5.655536000 _3_ MAC  --- 0 AODV 48 [0.00 -1 0] [energy 998.049639 ei 1.894 es 0.000 et 0.001 er 0.055] ------- [0:255 -1:255 29 0] [0x2 2 1 [3 0] [1 4]] (REQUEST)
r 5.655561000 _1_ RTR  --- 0 AODV 48 [0.00 -1 0] [energy 998.048820 ei 1.894 es 0.000 et 0.019 er 0.038] ------- [0:255 -1:255 29 0] [0x2 2 1 [3 0] [1 4]] (REQUEST)
r 5.655561000 _2_ RTR  --- 0 AODV 48 [0.00 -1 0] [energy 998.048820 ei 1.894 es 0.000 et 0.019 er 0.038] ------- [0:255 -1:255 29 0] [0x2 2 1 [3 0] [1 4]] (REQUEST)
r 5.655561000 _4_ RTR  --- 0 AODV 48 [0.00 -1 0] [energy 998.049639 ei 1.894 es 0.000 et 0.001 er 0.055] ------- [0:255 -1:255 29 0] [0x2 2 1 [3 0] [1 4]] (REQUEST)
r 5.655561000 _3_ RTR  --- 0 AODV 48 [0.00 -1 0] [energy 998.049639 ei 1.894 es 0.000 et 0.001 er 0.055] ------- [0:255 -1:255 29 0] [0x2 2 1 [3 0] [1 4]] (REQUEST)
s 5.655561000 _3_ RTR  --- 0 AODV 44 [0.00 0 0] [energy 998.049639 ei 1.894 es 0.000 et 0.001 er 0.055] ------- [3:255 1:255 30 0] [0x4 1 [3 4] 10.000000] (REPLY)
s 5.659616191 _4_ RTR  --- 0 AODV 48 [0.00 -1 0] [energy 998.049639 ei 1.894 es 0.000 et 0.001 er 0.055] ------- [4:255 -1:255 28 0] [0x2 3 1 [3 0] [1 4]] (REQUEST)
s 5.664610455 _2_ RTR  --- 0 AODV 48 [0.00 -1 0] [energy 998.048820 ei 1.894 es 0.000 et 0.019 er 0.038] ------- [2:255 -1:255 28 0] [0x2 3 1 [3 0] [1 4]] (REQUEST)
s 5.700000000 _1_ AGT  --- 15 cbr 512 [0.00 0 0] [energy 998.048820 ei 1.894 es 0.000 et 0.019 er 0.038] ------- [1:0 3:0 32 0] [14] 0 0
r 5.700000000 _1_ RTR  --- 15 cbr 512 [0.00 0 0] [energy 998.048820 ei 1.894 es 0.000 et 0.019 er 0.038] ------- [1:0 3:0 32 0] [14] 0 0
s 5.750000000 _1_ AGT  --- 16 cbr 512 [0.00 0 0] [energy 998.048820 ei 1.894 es 0.000 et 0.019 er 0.038] ------- [1:0 3:0 32 0] [15] 0 0
r 5.750000000 _1_ RTR  --- 16 cbr 512 [0.00 0 0] [energy 998.048820 ei 1.894 es 0.000 et 0.019 er 0.038] ------- [1:0 3:0 32 0] [15] 0 0
s 5.776002000 _0_ MAC  --- 0 SYNC 9 [0.12 0 1] [energy 998.048821 ei 1.894 es 0.000 et 0.019 er 0.038] 
N -t 5.776003 -n 1 -e 998.006251
N -t 5.776003 -n 2 -e 998.006251
N -t 5.776003 -n 4 -e 998.007070
N -t 5.776003 -n 3 -e 998.007070
s 5.800000000 _1_ AGT  --- 17 cbr 512 [0.00 0 0] [energy 998.006251 ei 1.935 es 0.000 et 0.019 er 0.039] ------- [1:0 3:0 32 0] [16] 0 0
r 5.800000000 _1_ RTR  --- 17 cbr 512 [0.00 0 0] [energy 998.006251 ei 1.935 es 0.000 et 0.019 er 0.039] ------- [1:0 3:0 32 0] [16] 0 0
s 5.817202000 _0_ MAC  --- 0 AODV 48 [0.00 -1 0] [energy 998.006198 ei 1.935 es 0.000 et 0.020 er 0.038] ------- [0:255 -1:255 29 0] [0x2 2 1 [3 0] [1 4]] (REQUEST)
N -t 5.817203 -n 1 -e 997.977270
N -t 5.817203 -n 2 -e 997.977270
N -t 5.817203 -n 4 -e 997.978089
N -t 5.817203 -n 3 -e 997.978089
s 5.850000000 _1_ AGT  --- 18 cbr 512 [0.00 0 0] [energy 997.977270 ei 1.949 es 0.000 et 0.019 er 0.055] ------- [1:0 3:0 32 0] [17] 0 0
r 5.850000000 _1_ RTR  --- 18 cbr 512 [0.00 0 0] [energy 997.977270 ei 1.949 es 0.000 et 0.019 er 0.055] ------- [1:0 3:0 32 0] [17] 0 0
r 5.860202667 _1_ MAC  --- 0 AODV 48 [0.00 -1 0] [energy 997.977270 ei 1.949 es 0.000 et 0.019 er 0.055] ------- [0:255 -1:255 29 0] [0x2 2 1 [3 0] [1 4]] (REQUEST)
r 5.860202667 _2_ MAC  --- 0 AODV 48 [0.00 -1 0] [energy 997.977270 ei 1.949 es 0.000 et 0.019 er 0.055] ------- [0:255 -1:255 29 0] [0x2 2 1 [3 0] [1 4]] (REQUEST)
r 5.860202667 _4_ MAC  --- 0 AODV 48 [0.00 -1 0] [energy 997.978089 ei 1.949 es 0.000 et 0.001 er 0.072] ------- [0:255 -1:255 29 0] [0x2 2 1 [3 0] [1 4]] (REQUEST)
r 5.860202667 _3_ MAC  --- 0 AODV 48 [0.00 -1 0] [energy 997.978089 ei 1.949 es 0.000 et 0.001 er 0.072] ------- [0:255 -1:255 29 0] [0x2 2 1 [3 0] [1 4]] (REQUEST)
r 5.860227667 _1_ RTR  --- 0 AODV 48 [0.00 -1 0] [energy 997.977270 ei 1.949 es 0.000 et 0.019 er 0.055] ------- [0:255 -1:255 29 0] [0x2 2 1 [3 0] [1 4]] (REQUEST)
r 5.860227667 _2_ RTR  --- 0 AODV 48 [0.00 -1 0] [energy 997.977270 ei 1.949 es 0.000 et 0.019 er 0.055] ------- [0:255 -1:255 29 0] [0x2 2 1 [3 0] [1 4]] (REQUEST)
r 5.860227667 _4_ RTR  --- 0 AODV 48 [0.00 -1 0] [energy 997.978089 ei 1.949 es 0.000 et 0.001 er 0.072] ------- [0:255 -1:255 29 0] [0x2 2 1 [3 0] [1 4]] (REQUEST)
r 5.860227667 _3_ RTR  --- 0 AODV 48 [0.00 -1 0] [energy 997.978089 ei 1.949 es 0.000 et 0.001 er 0.072] ------- [0:255 -1:255 29 0] [0x2 2 1 [3 0] [1 4]] (REQUEST)
N -t 5.895202 -n 0 -e 997.964404
s 5.900000000 _1_ AGT  --- 19 cbr 512 [0.00 0 0] [energy 997.977270 ei 1.949 es 0.000 et 0.019 er 0.055] ------- [1:0 3:0 32 0] [18] 0 0
r 5.900000000 _1_ RTR  --- 19 cbr 512 [0.00 0 0] [energy 997.977270 ei 1.949 es 0.000 et 0.019 er 0.055] ------- [1:0 3:0 32 0] [18] 0 0
s 5.950000000 _1_ AGT  --- 20 cbr 512 [0.00 0 0] [energy 997.977270 ei 1.949 es 0.000 et 0.019 er 0.055] ------- [1:0 3:0 32 0] [19] 0 0
r 5.950000000 _1_ RTR  --- 20 cbr 512 [0.00 0 0] [energy 997.977270 ei 1.949 es 0.000 et 0.019 er 0.055] ------- [1:0 3:0 32 0] [19] 0 0
N -t 5.991669 -n 0 -e 997.964400
s 6.000000000 _1_ AGT  --- 21 cbr 512 [0.00 0 0] [energy 997.977270 ei 1.949 es 0.000 et 0.019 er 0.055] ------- [1:0 3:0 32 0] [20] 0 0
r 6.000000000 _1_ RTR  --- 21 cbr 512 [0.00 0 0] [energy 997.977270 ei 1.949 es 0.000 et 0.019 er 0.055] ------- [1:0 3:0 32 0] [20] 0 0
s 6.011668667 _0_ MAC  --- 0 SYNC 9 [0.12 0 1] [energy 997.964400 ei 1.961 es 0.000 et 0.037 er 0.038] 
N -t 6.011669 -n 1 -e 997.924031
N -t 6.011669 -n 2 -e 997.924031
N -t 6.011669 -n 4 -e 997.924849
N -t 6.011669 -n 3 -e 997.924849
s 6.050000000 _1_ AGT  --- 22 cbr 512 [0.00 0 0] [energy 997.924031 ei 2.001 es 0.000 et 0.019 er 0.056] ------- [1:0 3:0 32 0] [21] 0 0
r 6.050000000 _1_ RTR  --- 22 cbr 512 [0.00 0 0] [energy 997.924031 ei 2.001 es 0.000 et 0.019 er 0.056] ------- [1:0 3:0 32 0] [21] 0 0
s 6.066868667 _0_ MAC  --- 0 AODV 48 [0.00 -1 0] [energy 997.956358 ei 1.968 es 0.000 et 0.038 er 0.038] ------- [0:255 -1:255 29 0] [0x2 2 1 [4 0] [2 4]] (REQUEST)
N -t 6.066869 -n 1 -e 997.890231
N -t 6.066869 -n 2 -e 997.890231
N -t 6.066869 -n 4 -e 997.891050
N -t 6.066869 -n 3 -e 997.891050
s 6.100000000 _1_ AGT  --- 23 cbr 512 [0.00 0 0] [energy 997.890231 ei 2.019 es 0.000 et 0.019 er 0.072] ------- [1:0 3:0 32 0] [22] 0 0
r 6.100000000 _1_ RTR  --- 23 cbr 512 [0.00 0 0] [energy 997.890231 ei 2.019 es 0.000 et 0.019 er 0.072] ------- [1:0 3:0 32 0] [22] 0 0
r 6.109869333 _1_ MAC  --- 0 AODV 48 [0.00 -1 0] [energy 997.890231 ei 2.019 es 0.000 et 0.019 er 0.072] ------- [0:255 -1:255 29 0] [0x2 2 1 [4 0] [2 4]] (REQUEST)
r 6.109869333 _2_ MAC  --- 0 AODV 48 [0.00 -1 0] [energy 997.890231 ei 2.019 es 0.000 et 0.019 er 0.072] ------- [0:255 -1:255 29 0] [0x2 2 1 [4 0] [2 4]] (REQUEST)
r 6.109869333 _4_ MAC  --- 0 AODV 48 [0.00 -1 0] [energy 997.891050 ei 2.019 es 0.000 et 0.001 er 0.089] ------- [0:255 -1:255 29 0] [0x2 2 1 [4 0] [2 4]] (REQUEST)
r 6.109869333 _3_ MAC  --- 0 AODV 48 [0.00 -1 0] [energy 997.891050 ei 2.019 es 0.000 et 0.001 er 0.089] ------- [0:255 -1:255 29 0] [0x2 2 1 [4 0] [2 4]] (REQUEST)
r 6.109894333 _1_ RTR  --- 0 AODV 48 [0.00 -1 0] [energy 997.890231 ei 2.019 es 0.000 et 0.019 er 0.072] ------- [0:255 -1:255 29 0] [0x2 2 1 [4 0] [2 4]] (REQUEST)
r 6.109894333 _2_ RTR  --- 0 AODV 48 [0.00 -1 0] [energy 997.890231 ei 2.019 es 0.000 et 0.019 er 0.072] ------- [0:255 -1:255 29 0] [0x2 2 1 [4 0] [2 4]] (REQUEST)
r 6.109894333 _4_ RTR  --- 0 AODV 48 [0.00 -1 0] [energy 997.891050 ei 2.019 es 0.000 et 0.001 er 0.089] ------- [0:255 -1:255 29 0] [0x2 2 1 [4 0] [2 4]] (REQUEST)
r 6.109894333 _3_ RTR  --- 0 AODV 48 [0.00 -1 0] [energy 997.891050 ei 2.019 es 0.000 et 0.001 er 0.089] ------- [0:255 -1:255 29 0] [0x2 2 1 [4 0] [2 4]] (REQUEST)
s 6.109894333 _4_ RTR  --- 0 AODV 44 [0.00 0 0] [energy 997.891050 ei 2.019 es 0.000 et 0.001 er 0.089] ------- [4:255 2:255 30 0] [0x4 1 [4 4] 10.000000] (REPLY)
s 6.111125368 _3_ RTR  --- 0 AODV 48 [0.00 -1 0] [energy 997.891050 ei 2.019 es 0.000 et 0.001 er 0.089] ------- [3:255 -1:255 28 0] [0x2 3 1 [4 0] [2 4]] (REQUEST)
s 6.113250961 _1_ RTR  --- 0 AODV 48 [0.00 -1 0] [energy 997.890231 ei 2.019 es 0.000 et 0.019 er 0.072] ------- [1:255 -1:255 28 0] [0x2 3 1 [4 0] [2 4]] (REQUEST)
N -t 6.134869 -n 0 -e 997.913187
s 6.150000000 _1_ AGT  --- 24 cbr 512 [0.00 0 0] [energy 997.890231 ei 2.019 es 0.000 et 0.019 er 0.072] ------- [1:0 3:0 32 0] [23] 0 0
r 6.150000000 _1_ RTR  --- 24 cbr 512 [0.00 0 0] [energy 997.890231 ei 2.019 es 0.000 et 0.019 er 0.072] ------- [1:0 3:0 32 0] [23] 0 0
s 6.200000000 _1_ AGT  --- 25 cbr 512 [0.00 0 0] [energy 997.890231 ei 2.019 es 0.000 et 0.019 er 0.072] ------- [1:0 3:0 32 0] [24] 0 0
r 6.200000000 _1_ RTR  --- 25 cbr 512 [0.00 0 0] [energy 997.890231 ei 2.019 es 0.000 et 0.019 er 0.072] ------- [1:0 3:0 32 0] [24] 0 0
N -t 6.231335 -n 0 -e 997.913183
s 6.250000000 _1_ AGT  --- 26 cbr 512 [0.00 0 0] [energy 997.890231 ei 2.019 es 0.000 et 0.019 er 0.072] ------- [1:0 3:0 32 0] [25] 0 0
r 6.250000000 _1_ RTR  --- 26 cbr 512 [0.00 0 0] [energy 997.890231 ei 2.019 es 0.000 et 0.019 er 0.072] ------- [1:0 3:0 32 0] [25] 0 0
s 6.250336000 _1_ MAC  --- 0 SYNC 9 [0.12 1 0] [energy 997.890231 ei 2.019 es 0.000 et 0.019 er 0.072] 
N -t 6.250337 -n 0 -e 997.905538
N -t 6.250337 -n 2 -e 997.840777
N -t 6.250337 -n 4 -e 997.841596
N -t 6.250337 -n 3 -e 997.841596
s 6.300000000 _1_ AGT  --- 27 cbr 512 [0.00 0 0] [energy 997.840724 ei 2.067 es 0.000 et 0.020 er 0.072] ------- [1:0 3:0 32 0] [26] 0 0
r 6.300000000 _1_ RTR  --- 27 cbr 512 [0.00 0 0] [energy 997.840724 ei 2.067 es 0.000 et 0.020 er 0.072] ------- [1:0 3:0 32 0] [26] 0 0
s 6.320535333 _0_ MAC  --- 0 AODV 48 [0.00 -1 0] [energy 997.905538 ei 2.001 es 0.000 et 0.054 er 0.039] ------- [0:255 -1:255 29 0] [0x2 2 1 [4 0] [2 4]] (REQUEST)
N -t 6.320536 -n 1 -e 997.801761
N -t 6.320536 -n 2 -e 997.801815
N -t 6.320536 -n 4 -e 997.802634
N -t 6.320536 -n 3 -e 997.802634
s 6.350000000 _1_ AGT  --- 28 cbr 512 [0.00 0 0] [energy 997.801761 ei 2.090 es 0.000 et 0.020 er 0.088] ------- [1:0 3:0 32 0] [27] 0 0
r 6.350000000 _1_ RTR  --- 28 cbr 512 [0.00 0 0] [energy 997.801761 ei 2.090 es 0.000 et 0.020 er 0.088] ------- [1:0 3:0 32 0] [27] 0 0
r 6.363536000 _1_ MAC  --- 0 AODV 48 [0.00 -1 0] [energy 997.801761 ei 2.090 es 0.000 et 0.020 er 0.088] ------- [0:255 -1:255 29 0] [0x2 2 1 [4 0] [2 4]] (REQUEST)
r 6.363536000 _2_ MAC  --- 0 AODV 48 [0.00 -1 0] [energy 997.801815 ei 2.090 es 0.000 et 0.019 er 0.089] ------- [0:255 -1:255 29 0] [0x2 2 1 [4 0] [2 4]] (REQUEST)
r 6.363536000 _4_ MAC  --- 0 AODV 48 [0.00 -1 0] [energy 997.802634 ei 2.090 es 0.000 et 0.001 er 0.106] ------- [0:255 -1:255 29 0] [0x2 2 1 [4 0] [2 4]] (REQUEST)
r 6.363536000 _3_ MAC  --- 0 AODV 48 [0.00 -1 0] [energy 997.802634 ei 2.090 es 0.000 et 0.001 er 0.106] ------- [0:255 -1:255 29 0] [0x2 2 1 [4 0] [2 4]] (REQUEST)
r 6.363561000 _1_ RTR  --- 0 AODV 48 [0.00 -1 0] [energy 997.801761 ei 2.090 es 0.000 et 0.020 er 0.088] ------- [0:255 -1:255 29 0] [0x2 2 1 [4 0] [2 4]] (REQUEST)
r 6.363561000 _2_ RTR  --- 0 AODV 48 [0.00 -1 0] [energy 997.801815 ei 2.090 es 0.000 et 0.019 er 0.089] ------- [0:255 -1:255 29 0] [0x2 2 1 [4 0] [2 4]] (REQUEST)
r 6.363561000 _4_ RTR  --- 0 AODV 48 [0.00 -1 0] [energy 997.802634 ei 2.090 es 0.000 et 0.001 er 0.106] ------- [0:255 -1:255 29 0] [0x2 2 1 [4 0] [2 4]] (REQUEST)
r 6.363561000 _3_ RTR  --- 0 AODV 48 [0.00 -1 0] [energy 997.802634 ei 2.090 es 0.000 et 0.001 er 0.106] ------- [0:255 -1:255 29 0] [0x2 2 1 [4 0] [2 4]] (REQUEST)
N -t 6.374536 -n 1 -e 997.797975
N -t 6.374537 -n 0 -e 997.862023
s 6.400000000 _1_ AGT  --- 29 cbr 512 [0.00 0 0] [energy 997.797975 ei 2.094 es 0.000 et 0.020 er 0.088] ------- [1:0 3:0 32 0] [28] 0 0
r 6.400000000 _1_ RTR  --- 29 cbr 512 [0.00 0 0] [energy 997.797975 ei 2.094 es 0.000 et 0.020 er 0.088] ------- [1:0 3:0 32 0] [28] 0 0
s 6.450000000 _1_ AGT  --- 30 cbr 512 [0.00 0 0] [energy 997.797975 ei 2.094 es 0.000 et 0.020 er 0.088] ------- [1:0 3:0 32 0] [29] 0 0
r 6.450000000 _1_ RTR  --- 30 cbr 512 [0.00 0 0] [energy 997.797975 ei 2.094 es 0.000 et 0.020 er 0.088] ------- [1:0 3:0 32 0] [29] 0 0
N -t 6.471003 -n 1 -e 997.797970
N -t 6.471003 -n 0 -e 997.862018
s 6.481002667 _3_ MAC  --- 0 SYNC 9 [0.13 3 0] [energy 997.802634 ei 2.090 es 0.000 et 0.001 er 0.106] 
N -t 6.481003 -n 0 -e 997.857472
N -t 6.481004 -n 4 -e 997.761097
N -t 6.481004 -n 2 -e 997.760278
N -t 6.481004 -n 1 -e 997.793423
s 6.500000000 _1_ AGT  --- 31 cbr 512 [0.00 0 0] [energy 997.793423 ei 2.097 es 0.000 et 0.020 er 0.089] ------- [1:0 3:0 32 0] [30] 0 0
r 6.500000000 _1_ RTR  --- 31 cbr 512 [0.00 0 0] [energy 997.793423 ei 2.097 es 0.000 et 0.020 er 0.089] ------- [1:0 3:0 32 0] [30] 0 0
s 6.550000000 _1_ AGT  --- 32 cbr 512 [0.00 0 0] [energy 997.793423 ei 2.097 es 0.000 et 0.020 er 0.089] ------- [1:0 3:0 32 0] [31] 0 0
r 6.550000000 _1_ RTR  --- 32 cbr 512 [0.00 0 0] [energy 997.793423 ei 2.097 es 0.000 et 0.020 er 0.089] ------- [1:0 3:0 32 0] [31] 0 0
s 6.585202667 _3_ MAC  --- 0 ARP 28 [0.00 -1 3] [energy 997.761043 ei 2.131 es 0.000 et 0.002 er 0.106] ------- [REQUEST 3/3 0/0]
N -t 6.585203 -n 0 -e 997.806806
N -t 6.585204 -n 4 -e 997.710431
N -t 6.585204 -n 2 -e 997.709612
N -t 6.585204 -n 1 -e 997.742758
s 6.600000000 _1_ AGT  --- 33 cbr 512 [0.00 0 0] [energy 997.742758 ei 2.132 es 0.000 et 0.020 er 0.105] ------- [1:0 3:0 32 0] [32] 0 0
r 6.600000000 _1_ RTR  --- 33 cbr 512 [0.00 0 0] [energy 997.742758 ei 2.132 es 0.000 et 0.020 er 0.105] ------- [1:0 3:0 32 0] [32] 0 0
r 6.628203333 _0_ MAC  --- 0 ARP 28 [0.00 -1 3] [energy 997.806806 ei 2.066 es 0.000 et 0.071 er 0.056] ------- [REQUEST 3/3 0/0]
s 6.650000000 _1_ AGT  --- 34 cbr 512 [0.00 0 0] [energy 997.742758 ei 2.132 es 0.000 et 0.020 er 0.105] ------- [1:0 3:0 32 0] [33] 0 0
r 6.650000000 _1_ RTR  --- 34 cbr 512 [0.00 0 0] [energy 997.742758 ei 2.132 es 0.000 et 0.020 er 0.105] ------- [1:0 3:0 32 0] [33] 0 0
s 6.700000000 _1_ AGT  --- 35 cbr 512 [0.00 0 0] [energy 997.742758 ei 2.132 es 0.000 et 0.020 er 0.105] ------- [1:0 3:0 32 0] [34] 0 0
r 6.700000000 _1_ RTR  --- 35 cbr 512 [0.00 0 0] [energy 997.742758 ei 2.132 es 0.000 et 0.020 er 0.105] ------- [1:0 3:0 32 0] [34] 0 0
s 6.736669333 _2_ MAC  --- 0 SYNC 9 [0.11 2 0] [energy 997.709612 ei 2.165 es 0.000 et 0.019 er 0.106] 
N -t 6.736670 -n 0 -e 997.768367
N -t 6.736670 -n 1 -e 997.704319
N -t 6.736670 -n 3 -e 997.671173
N -t 6.736671 -n 4 -e 997.671992
s 6.750000000 _1_ AGT  --- 36 cbr 512 [0.00 0 0] [energy 997.704319 ei 2.170 es 0.000 et 0.020 er 0.106] ------- [1:0 3:0 32 0] [35] 0 0
r 6.750000000 _1_ RTR  --- 36 cbr 512 [0.00 0 0] [energy 997.704319 ei 2.170 es 0.000 et 0.020 er 0.106] ------- [1:0 3:0 32 0] [35] 0 0
s 6.784870000 _0_ MAC  --- 0 RTS 10 [0.07 3 0] [energy 997.768367 ei 2.103 es 0.000 et 0.071 er 0.057] 
N -t 6.784871 -n 1 -e 997.684711
N -t 6.784871 -n 2 -e 997.651512
N -t 6.784871 -n 4 -e 997.652384
N -t 6.784871 -n 3 -e 997.651565
s 6.795870667 _3_ MAC  --- 0 CTS 10 [0.06 0 3] [energy 997.651565 ei 2.218 es 0.000 et 0.019 er 0.111] 
N -t 6.795871 -n 0 -e 997.744513
N -t 6.795872 -n 4 -e 997.648333
N -t 6.795872 -n 2 -e 997.647461
N -t 6.795872 -n 1 -e 997.680660
s 6.800000000 _1_ AGT  --- 37 cbr 512 [0.00 0 0] [energy 997.680660 ei 2.185 es 0.000 et 0.020 er 0.114] ------- [1:0 3:0 32 0] [36] 0 0
r 6.800000000 _1_ RTR  --- 37 cbr 512 [0.00 0 0] [energy 997.680660 ei 2.185 es 0.000 et 0.020 er 0.114] ------- [1:0 3:0 32 0] [36] 0 0
s 6.806871333 _0_ MAC  --- 0 ARP 28 [0.01 3 0] [energy 997.744513 ei 2.119 es 0.000 et 0.075 er 0.061] ------- [REPLY 0/0 3/3]
N -t 6.806872 -n 1 -e 997.664827
N -t 6.806872 -n 2 -e 997.631628
N -t 6.806872 -n 4 -e 997.632501
N -t 6.806872 -n 3 -e 997.631486
s 6.849872000 _3_ MAC  --- 0 ACK 10 [0.00 0 3] [energy 997.631486 ei 2.218 es 0.000 et 0.023 er 0.127] 
r 6.849872000 _3_ MAC  --- 0 ARP 28 [0.01 3 0] [energy 997.627240 ei 2.218 es 0.000 et 0.027 er 0.127] ------- [REPLY 0/0 3/3]
N -t 6.849873 -n 0 -e 997.723864
N -t 6.849873 -n 4 -e 997.628450
N -t 6.849873 -n 2 -e 997.627578
N -t 6.849873 -n 1 -e 997.660777
s 6.850000000 _1_ AGT  --- 38 cbr 512 [0.00 0 0] [energy 997.660777 ei 2.185 es 0.000 et 0.020 er 0.134] ------- [1:0 3:0 32 0] [37] 0 0
r 6.850000000 _1_ RTR  --- 38 cbr 512 [0.00 0 0] [energy 997.660777 ei 2.185 es 0.000 et 0.020 er 0.134] ------- [1:0 3:0 32 0] [37] 0 0
s 6.850000000 _1_ RTR  --- 0 AODV 48 [0.00 0 0] [energy 997.660777 ei 2.185 es 0.000 et 0.020 er 0.134] ------- [1:255 -1:255 30 0] [0x2 1 2 [3 0] [1 6]] (REQUEST)
s 6.900000000 _1_ AGT  --- 39 cbr 512 [0.00 0 0] [energy 997.660777 ei 2.185 es 0.000 et 0.020 er 0.134] ------- [1:0 3:0 32 0] [38] 0 0
r 6.900000000 _1_ RTR  --- 39 cbr 512 [0.00 0 0] [energy 997.660777 ei 2.185 es 0.000 et 0.020 er 0.134] ------- [1:0 3:0 32 0] [38] 0 0
s 6.950000000 _1_ AGT  --- 40 cbr 512 [0.00 0 0] [energy 997.660777 ei 2.185 es 0.000 et 0.020 er 0.134] ------- [1:0 3:0 32 0] [39] 0 0
r 6.950000000 _1_ RTR  --- 40 cbr 512 [0.00 0 0] [energy 997.660777 ei 2.185 es 0.000 et 0.020 er 0.134] ------- [1:0 3:0 32 0] [39] 0 0
s 6.964336000 _4_ MAC  --- 0 SYNC 9 [0.13 4 0] [energy 997.628450 ei 2.218 es 0.000 et 0.001 er 0.152] 
N -t 6.964337 -n 0 -e 997.687147
N -t 6.964337 -n 1 -e 997.624060
N -t 6.964337 -n 3 -e 997.590523
N -t 6.964337 -n 2 -e 997.590861
s 7.000000000 _1_ AGT  --- 41 cbr 512 [0.00 0 0] [energy 997.624060 ei 2.221 es 0.000 et 0.020 er 0.135] ------- [1:0 3:0 32 0] [40] 0 0
r 7.000000000 _1_ RTR  --- 41 cbr 512 [0.00 0 0] [energy 997.624060 ei 2.221 es 0.000 et 0.020 er 0.135] ------- [1:0 3:0 32 0] [40] 0 0
s 7.000000000 _2_ AGT  --- 42 cbr 512 [0.00 0 0] [energy 997.590861 ei 2.254 es 0.000 et 0.020 er 0.135] ------- [2:0 4:0 32 0] [1] 0 0
r 7.000000000 _2_ RTR  --- 42 cbr 512 [0.00 0 0] [energy 997.590861 ei 2.254 es 0.000 et 0.020 er 0.135] ------- [2:0 4:0 32 0] [1] 0 0
s 7.000000000 _2_ RTR  --- 0 AODV 48 [0.00 0 0] [energy 997.590861 ei 2.254 es 0.000 et 0.020 er 0.135] ------- [2:255 -1:255 30 0] [0x2 1 2 [4 0] [2 6]] (REQUEST)
s 7.034536000 _4_ MAC  --- 0 AODV 48 [0.00 -1 4] [energy 997.591680 ei 2.254 es 0.000 et 0.002 er 0.152] ------- [4:255 -1:255 28 0] [0x2 3 1 [3 0] [1 4]] (REQUEST)
N -t 7.034537 -n 0 -e 997.648184
N -t 7.034537 -n 1 -e 997.585097
N -t 7.034537 -n 3 -e 997.551560
N -t 7.034537 -n 2 -e 997.551898
s 7.050000000 _1_ AGT  --- 43 cbr 512 [0.00 0 0] [energy 997.585097 ei 2.244 es 0.000 et 0.020 er 0.151] ------- [1:0 3:0 32 0] [41] 0 0
r 7.050000000 _1_ RTR  --- 43 cbr 512 [0.00 0 0] [energy 997.585097 ei 2.244 es 0.000 et 0.020 er 0.151] ------- [1:0 3:0 32 0] [41] 0 0
r 7.077536667 _0_ MAC  --- 0 AODV 48 [0.00 -1 4] [energy 997.648184 ei 2.177 es 0.000 et 0.092 er 0.082] ------- [4:255 -1:255 28 0] [0x2 3 1 [3 0] [1 4]] (REQUEST)
r 7.077561667 _0_ RTR  --- 0 AODV 48 [0.00 -1 4] [energy 997.648184 ei 2.177 es 0.000 et 0.092 er 0.082] ------- [4:255 -1:255 28 0] [0x2 3 1 [3 0] [1 4]] (REQUEST)
N -t 7.093536 -n 1 -e 997.579590
N -t 7.093536 -n 2 -e 997.546391
N -t 7.093536 -n 4 -e 997.546445
N -t 7.093536 -n 3 -e 997.546053
N -t 7.093537 -n 0 -e 997.642677
s 7.100000000 _1_ AGT  --- 44 cbr 512 [0.00 0 0] [energy 997.579590 ei 2.249 es 0.000 et 0.020 er 0.151] ------- [1:0 3:0 32 0] [42] 0 0
r 7.100000000 _1_ RTR  --- 44 cbr 512 [0.00 0 0] [energy 997.579590 ei 2.249 es 0.000 et 0.020 er 0.151] ------- [1:0 3:0 32 0] [42] 0 0
s 7.150000000 _1_ AGT  --- 45 cbr 512 [0.00 0 0] [energy 997.579590 ei 2.249 es 0.000 et 0.020 er 0.151] ------- [1:0 3:0 32 0] [43] 0 0
r 7.150000000 _1_ RTR  --- 45 cbr 512 [0.00 0 0] [energy 997.579590 ei 2.249 es 0.000 et 0.020 er 0.151] ------- [1:0 3:0 32 0] [43] 0 0
N -t 7.190003 -n 1 -e 997.579585
N -t 7.190003 -n 2 -e 997.546386
N -t 7.190003 -n 4 -e 997.546440
N -t 7.190003 -n 3 -e 997.546048
N -t 7.190003 -n 0 -e 997.642672
s 7.200000000 _1_ AGT  --- 46 cbr 512 [0.00 0 0] [energy 997.579585 ei 2.249 es 0.000 et 0.020 er 0.151] ------- [1:0 3:0 32 0] [44] 0 0
r 7.200000000 _1_ RTR  --- 46 cbr 512 [0.00 0 0] [energy 997.579585 ei 2.249 es 0.000 et 0.020 er 0.151] ------- [1:0 3:0 32 0] [44] 0 0
s 7.250000000 _1_ AGT  --- 47 cbr 512 [0.00 0 0] [energy 997.579585 ei 2.249 es 0.000 et 0.020 er 0.151] ------- [1:0 3:0 32 0] [45] 0 0
r 7.250000000 _1_ RTR  --- 47 cbr 512 [0.00 0 0] [energy 997.579585 ei 2.249 es 0.000 et 0.020 er 0.151] ------- [1:0 3:0 32 0] [45] 0 0
s 7.259202667 _3_ MAC  --- 0 AODV 48 [0.00 -1 3] [energy 997.546048 ei 2.283 es 0.000 et 0.027 er 0.144] ------- [3:255 -1:255 28 0] [0x2 3 1 [4 0] [2 4]] (REQUEST)
N -t 7.259203 -n 0 -e 997.603021
N -t 7.259204 -n 4 -e 997.506788
N -t 7.259204 -n 2 -e 997.506735
N -t 7.259204 -n 1 -e 997.539934
s 7.300000000 _1_ AGT  --- 48 cbr 512 [0.00 0 0] [energy 997.539934 ei 2.273 es 0.000 et 0.020 er 0.167] ------- [1:0 3:0 32 0] [46] 0 0
r 7.300000000 _1_ RTR  --- 48 cbr 512 [0.00 0 0] [energy 997.539934 ei 2.273 es 0.000 et 0.020 er 0.167] ------- [1:0 3:0 32 0] [46] 0 0
r 7.302203333 _0_ MAC  --- 0 AODV 48 [0.00 -1 3] [energy 997.603021 ei 2.207 es 0.000 et 0.092 er 0.098] ------- [3:255 -1:255 28 0] [0x2 3 1 [4 0] [2 4]] (REQUEST)
r 7.302228333 _0_ RTR  --- 0 AODV 48 [0.00 -1 3] [energy 997.603021 ei 2.207 es 0.000 et 0.092 er 0.098] ------- [3:255 -1:255 28 0] [0x2 3 1 [4 0] [2 4]] (REQUEST)
N -t 7.333203 -n 3 -e 997.494961
N -t 7.333203 -n 0 -e 997.592351
s 7.350000000 _1_ AGT  --- 49 cbr 512 [0.00 0 0] [energy 997.539934 ei 2.273 es 0.000 et 0.020 er 0.167] ------- [1:0 3:0 32 0] [47] 0 0